
 Primary working directories    : /tmp/youli
 Secondary working directories  : /tmp/youli
 Wavefunction directory         : /home/youli/wfu/
 Main file repository           : /tmp/youli/

 SHA1      : 2c68d29c09da70e1723824271fadde4bcd5f07a0
 ARCHNAME  : Linux/x86_64
 FC        : /opt/intel/compilerpro-12.0.2.137/bin/intel64/ifort
 FCVERSION : 12.0.2
 BLASLIB   : 
 id        : mailjlu

 Nodes     nprocs
 master      14
 ga_uses_ma=false, calling ma_init with nominal heap.
 GA-space will be limited to   8.0 MW (determined by -G option)

 Using customized tuning parameters: mindgm=4; mindgv=4; mindgc=1; mindgr=1; noblas=0; minvec=7
 default implementation of scratch files=sf  

 ***,electronic structure method test for NMA dimer dynamics
 gprint;
 MEMORY,100,m
 symmetry,nosym
 geometry={
  C          0.0992595257        0.0000104683       -0.4721354260
  O          1.3224997801       -0.0000547215       -0.4510672534
  N         -0.6640785289       -0.0005416948        0.6563673745
  H         -1.6620200711        0.0012817850        0.5561115335
  C         -0.6761073965        0.0001794489       -1.7691525095
  H         -1.7549113727        0.0002214473       -1.6319356799
  H         -0.3878126080        0.8775192490       -2.3427582294
  H         -0.3879379743       -0.8771380097       -2.3428577921
  C         -0.0799563632        0.0002747033        1.9788747909
  H         -0.3659228584        0.8903364757        2.5366068589
  H          0.9976578051       -0.0063369666        1.8490241131
  H         -0.3765676487       -0.8830243748        2.5416611204
 }
 basis=aug-cc-pVDZ
 
 hf
 mp2-f12
 
 optg
 frequencies
 print,hessian;
 save,hessian,freq;

 Variables initialized (766), CPU time= 0.01 sec
 Commands  initialized (545), CPU time= 0.01 sec, 513 directives.
 Default parameters read. Elapsed time= 0.04 sec

 Checking input...
 Passed
1


                                         ***  PROGRAM SYSTEM MOLPRO  ***
                         Copyright, University College Cardiff Consultants Limited, 2008

                                    Version 2012.1 linked 30 Aug 2012 10:17:55


 **********************************************************************************************************************************
 LABEL *   electronic structure method test for NMA dimer dynamics                       
 Linux-2.6.32-642.el6.x86_64/master(x86_64) 64 bit mpp version                           DATE: 12-Nov-18          TIME: 16:23:45  
 **********************************************************************************************************************************

 SHA1:             2c68d29c09da70e1723824271fadde4bcd5f07a0
 **********************************************************************************************************************************


 Variable memory set to  100000000 words,  buffer space   230000 words

 ZSYMEL=NOSYM
 

Geometry recognized as XYZ

 SETTING BASIS          =    AUG-CC-PVDZ


 Recomputing integrals since basis changed


 Using spherical harmonics

 Library entry C      S aug-cc-pVDZ          selected for orbital group  1
 Library entry C      P aug-cc-pVDZ          selected for orbital group  1
 Library entry C      D aug-cc-pVDZ          selected for orbital group  1
 Library entry O      S aug-cc-pVDZ          selected for orbital group  2
 Library entry O      P aug-cc-pVDZ          selected for orbital group  2
 Library entry O      D aug-cc-pVDZ          selected for orbital group  2
 Library entry N      S aug-cc-pVDZ          selected for orbital group  3
 Library entry N      P aug-cc-pVDZ          selected for orbital group  3
 Library entry N      D aug-cc-pVDZ          selected for orbital group  3
 Library entry H      S aug-cc-pVDZ          selected for orbital group  4
 Library entry H      P aug-cc-pVDZ          selected for orbital group  4

1PROGRAM * SEWARD (Integral evaluation for generally contracted gaussian basis sets)     Author: Roland Lindh, 1990

 Geometry written to block  1 of record 700


 Point group  C1  



 ATOMIC COORDINATES

 NR  ATOM    CHARGE       X              Y              Z

   1  C       6.00    0.187573320    0.000019782   -0.892206652
   2  O       8.00    2.499162393   -0.000103409   -0.852393576
   3  N       7.00   -1.254926549   -0.001023655    1.240354579
   4  H       1.00   -3.140762759    0.002422223    1.050898497
   5  C       6.00   -1.277657815    0.000339109   -3.343213728
   6  H       1.00   -3.316301879    0.000418475   -3.083911499
   7  H       1.00   -0.732859619    1.658271056   -4.427171446
   8  H       1.00   -0.733096527   -1.657550618   -4.427359592
   9  C       6.00   -0.151095629    0.000519114    3.739531403
  10  H       1.00   -0.691493988    1.682492104    4.793492266
  11  H       1.00    1.885300025   -0.011975131    3.494149184
  12  H       1.00   -0.711609726   -1.668674236    4.803043436

 Bond lengths in Bohr (Angstrom)

 1-2  2.311931907  1-3  2.574611498  1-5  2.855580162  3-4  1.895332080  3-9  2.732092582
     ( 1.223421674)     ( 1.362425727)     ( 1.511107940)     ( 1.002966540)     ( 1.445761127)

  5- 6  2.055068679   5- 7  2.054387438   5- 8  2.054389836   9-10  2.057157511   9-11  2.051164498
       ( 1.087495508)       ( 1.087135011)       ( 1.087136280)       ( 1.088600870)       ( 1.085429504)

  9-12  2.057046508
       ( 1.088542130)

 Bond angles

  1-3-4  118.33813568   1-3-9  122.09491861   1-5-6  113.62258504   1-5-7  108.47533150

  1-5-8  108.47272908   2-1-3  123.08834744   2-1-5  121.85803333   3-1-5  115.05361526

  3- 9-10  111.28384957   3- 9-11  106.95853318   3- 9-12  111.24671664   4- 3- 9  119.56669345

  6- 5- 7  109.24521819   6- 5- 8  109.24273652   7- 5- 8  107.60951552  10- 9-11  109.09115979

 10- 9-12  109.08652364  11- 9-12  109.11288045

 NUCLEAR CHARGE:                   40
 NUMBER OF PRIMITIVE AOS:         262
 NUMBER OF SYMMETRY AOS:          252
 NUMBER OF CONTRACTIONS:          178   ( 178A   )
 NUMBER OF CORE ORBITALS:           5   (   5A   )
 NUMBER OF VALENCE ORBITALS:       27   (  27A   )


 NUCLEAR REPULSION ENERGY  180.49237818


 Eigenvalues of metric

         1 0.404E-04 0.124E-03 0.149E-03 0.240E-03 0.393E-03 0.440E-03 0.534E-03 0.583E-03


 Contracted 2-electron integrals neglected if value below      1.0D-12
 AO integral compression algorithm  1   Integral accuracy      1.0D-12

     656.671 MB (compressed) written to integral file ( 57.7%)

     Node minimum: 43.778 MB, node maximum: 52.167 MB


 NUMBER OF SORTED TWO-ELECTRON INTEGRALS:    9057342.     BUFFER LENGTH:  32768
 NUMBER OF SEGMENTS:   1  SEGMENT LENGTH:    9057342      RECORD LENGTH: 524288

 Memory used in sort:       9.61 MW

 SORT1 READ   142311335. AND WROTE     8917025. INTEGRALS IN     26 RECORDS. CPU TIME:     2.38 SEC, REAL TIME:     2.53 SEC
 SORT2 READ   125174932. AND WROTE   126906346. INTEGRALS IN   2478 RECORDS. CPU TIME:     0.29 SEC, REAL TIME:     0.45 SEC

 Node minimum:     9057342.  Node maximum:     9072136. integrals

 OPERATOR DM      FOR CENTER  0  COORDINATES:    0.000000    0.000000    0.000000


 **********************************************************************************************************************************
 DATASETS  * FILE   NREC   LENGTH (MB)   RECORD NAMES
              1      18        8.91       500      610      700      900      950      970     1000      129      960     1100   
                                          VAR    BASINP    GEOM    SYMINP    ZMAT    AOBASIS   BASIS     P2S    ABASIS      S 
                                         1400     1410     1200     1210     1080     1600     1650     1700   
                                           T        V       H0       H01     AOSYM     SMH    MOLCAS    OPER   

 PROGRAMS   *        TOTAL       INT
 CPU TIMES  *         3.33      3.22
 REAL TIME  *         3.78 SEC
 DISK USED  *         2.14 GB      
 GA USED    *         0.00 MB       (max)       0.00 MB       (current)
 **********************************************************************************************************************************

1PROGRAM * RHF-SCF (CLOSED SHELL)       Authors: W. Meyer, H.-J. Werner


 NUMBER OF ELECTRONS:      20+   20-    SPACE SYMMETRY=1    SPIN SYMMETRY: Singlet 
 CONVERGENCE THRESHOLDS:    1.00E-06 (Density)    1.00E-07 (Energy)
 MAX. NUMBER OF ITERATIONS:       60
 INTERPOLATION TYPE:            DIIS
 INTERPOLATION STEPS:              2 (START)      1 (STEP)
 LEVEL SHIFTS:                  0.00 (CLOSED)  0.00 (OPEN) 



 Orbital guess generated from atomic densities. Full valence occupancy:   32

 Molecular orbital dump at record        2100.2

 ITERATION    DDIFF          GRAD             ENERGY        2-EL.EN.            DIPOLE MOMENTS         DIIS   ORB.
    1      0.000D+00      0.000D+00      -246.93025159    533.144881   -2.72505    0.00167    0.51952    0    start
    2      0.000D+00      0.570D-02      -246.99747532    530.619152   -1.09599    0.00112    0.26869    1    diag
    3      0.107D-01      0.421D-02      -247.03936471    531.435863   -1.67287    0.00113    0.32497    2    diag
    4      0.409D-02      0.663D-03      -247.04174639    531.608317   -1.61366    0.00123    0.29971    3    diag
    5      0.134D-02      0.186D-03      -247.04197380    531.485648   -1.60915    0.00117    0.28882    4    diag
    6      0.420D-03      0.576D-04      -247.04200515    531.518328   -1.60234    0.00118    0.28196    5    diag
    7      0.147D-03      0.267D-04      -247.04201030    531.513121   -1.60216    0.00118    0.28011    6    diag
    8      0.542D-04      0.102D-04      -247.04201121    531.513067   -1.60156    0.00118    0.27879    7    diag
    9      0.248D-04      0.370D-05      -247.04201134    531.513099   -1.60110    0.00117    0.27844    8    diag
   10      0.110D-04      0.894D-06      -247.04201135    531.513221   -1.60105    0.00117    0.27840    9    orth
   11      0.278D-05      0.235D-06      -247.04201135    531.513096   -1.60102    0.00117    0.27841    9    diag
   12      0.624D-06      0.747D-07      -247.04201135    531.513158   -1.60102    0.00117    0.27842    0    orth

 Final occupancy:  20

 !RHF STATE 1.1 Energy               -247.042011351728
 Nuclear energy                       180.49237818
 One-electron energy                 -693.29096835
 Two-electron energy                  265.75657882
 Virial quotient                       -1.00125111
 !RHF STATE 1.1 Dipole moment          -1.60102191     0.00117443     0.27841562
 Dipole moment /Debye                  -4.06912527     0.00298490     0.70761558

 Orbital energies:

         1.1          2.1          3.1          4.1          5.1          6.1          7.1          8.1          9.1         10.1
    -20.521204   -15.593533   -11.355814   -11.262777   -11.242002    -1.378796    -1.232972    -1.020000    -0.933478    -0.791088

        11.1         12.1         13.1         14.1         15.1         16.1         17.1         18.1         19.1         20.1
     -0.691248    -0.653117    -0.632712    -0.586820    -0.581479    -0.554429    -0.543625    -0.504004    -0.419621    -0.390187

        21.1         22.1
      0.029045     0.042931

 HOMO     20.1    -0.390187 =     -10.6175eV
 LUMO     21.1     0.029045 =       0.7903eV
 LUMO-HOMO         0.419232 =      11.4079eV


 **********************************************************************************************************************************
 DATASETS  * FILE   NREC   LENGTH (MB)   RECORD NAMES
              1      18        8.91       500      610      700      900      950      970     1000      129      960     1100   
                                          VAR    BASINP    GEOM    SYMINP    ZMAT    AOBASIS   BASIS     P2S    ABASIS      S 
                                         1400     1410     1200     1210     1080     1600     1650     1700   
                                           T        V       H0       H01     AOSYM     SMH    MOLCAS    OPER   

              2       4        1.14       700     1000      520     2100   
                                         GEOM     BASIS   MCVARS     RHF  

 PROGRAMS   *        TOTAL        HF       INT
 CPU TIMES  *         4.69      1.36      3.22
 REAL TIME  *         5.28 SEC
 DISK USED  *         2.31 GB      
 SF USED    *         0.13 MB      
 GA USED    *         0.00 MB       (max)       0.00 MB       (current)
 **********************************************************************************************************************************


1PROGRAM * MP2 (Closed-shell)     Authors: C. Hampel, H.-J. Werner, 1991, M. Deegan, P.J. Knowles, 1992

                                   MP2-F12 implementation by H.-J. Werner, 2007

                   Density fitting integral evaluation by F.R. Manby, 2003,2007, G. Knizia, 2010

 Basis set CC-PVDZ/JKFIT generated.      Number of basis functions:   511 
 Basis set AUG-CC-PVDZ/MP2FIT generated. Number of basis functions:   521 

 Convergence thresholds:  THRVAR = 1.00D-12  THRDEN = 1.00D-08

 Number of core orbitals:           5 (   5 )
 Number of closed-shell orbitals:  15 (  15 )
 Number of external orbitals:     158 ( 158 )

 Molecular orbitals read from record     2100.2  Type=RHF/CANONICAL (state 1.1)

 MP2-F12 correlation treatment (H.-J. Werner, 2006)
 ==================================================

 Using MP2-F12 with ansatz 3C(FIX)

 Using projected zeroth-order Hamiltonian (+Z)

 FOCKRIB=T FOCKRIC=T FOCKRIP=T CABSP=T CABSA=T CABSK=T CABSF=T GBC=F EBC=F DMAT=T NOFIK=T NOPAO=1 SOLVE=-1  USEPAO=0
 EXCH_A= T EXCH_B= F EXCH_C= F EXCH_P= F
 
 Geminal basis:    OPTFULL  GEM_TYPE=SLATER  BETA=1.0  NGEM=6

 Optimizing Gaussian exponents for each gem_beta

 Geminal optimization for beta= 1.0000
 Weight function:   m=0, omega= 1.4646

 Augmented Hessian optimization of geminal fit. Trust ratio= 0.40000
 Convergence reached after   2 iterations. Final gradient= 8.55D-16, Step= 4.27D-06, Delta= 1.28D-09
 
 Alpha:                 0.19532     0.81920     2.85917     9.50073    35.69989   197.79328
 Coeff:                 0.27070     0.30552     0.18297     0.10986     0.06810     0.04224
 

 All pairs explicitly correlated. Number of r12-pairs:          120

 Excluding core orbitals from MO domains
 
 AO(A)-basis ORBITAL           loaded. Number of functions:     178
 RI(R)-basis CC-PVDZ/JKFIT     loaded. Number of functions:     511
 DF-basis CC-PVDZ/JKFIT        loaded. Number of functions:     511

 Screening thresholds:   THRAO=  1.00D-10  THRMO=  1.00D-10  THRPROD=  1.00D-10
                         THRSW=  1.00D-07  THROV=  1.00D-12  THRF12=   1.00D-08

 CPU time for Fock operators                      1.34 sec
 
 Construction of ABS:
 Smallest eigenvalue of S          5.05E-05  (threshold= 1.00E-08)
 Ratio eigmin/eigmax               1.45E-06  (threshold= 1.00E-09)
 Smallest eigenvalue of S kept     5.05E-05  (threshold= 5.05E-05, 0 functions deleted, 511 kept)
 
 Construction of CABS:
 Smallest eigenvalue of S          6.23E-07  (threshold= 1.00E-08)
 Ratio eigmin/eigmax               6.23E-07  (threshold= 1.00E-09)
 Smallest eigenvalue of S kept     6.23E-07  (threshold= 6.23E-07, 0 functions deleted, 511 kept)
 
 CPU time for CABS singles                        0.69 sec

 CABS-singles contribution of  -0.06403539 patched into reference energy.
 New reference energy        -247.10604674
 
 AO(A)-basis ORBITAL           loaded. Number of functions:     178
 RI(R)-basis CC-PVDZ/JKFIT     loaded. Number of functions:     511
 DF-basis AUG-CC-PVDZ/MP2FIT   loaded. Number of functions:     521

 Screening thresholds:   THRAO=  1.00D-10  THRMO=  1.00D-10  THRPROD=  1.00D-10
                         THRSW=  1.00D-07  THROV=  1.00D-12  THRF12=   1.00D-08

 CPU time for 3-index integral evaluation         0.67 sec
 CPU time for first  half transformation          0.06 sec ( 8938.6 MFLOP/sec)
 CPU time for second half transformation          0.05 sec (  555.4 MFLOP/sec)
 CPU time for sorting                             0.29 sec
 CPU time for fitting                             0.18 sec ( 4518.0 MFLOP/sec)
 CPU time for tilde quantities                    0.13 sec ( 7575.3 MFLOP/sec)
 CPU time for assembly                            1.28 sec ( 6957.0 MFLOP/sec)
 CPU time for tranop_f12                          1.55 sec ( 8189.4 MFLOP/sec)
 CPU time for f12 integrals (total)               7.67 sec, Elapsed time:      9.27 sec
 F12-matrices built in 14 passes.
 F12-matrices built in 14 passes.
 F12-matrices built in 14 passes.
 F12-matrices built in 14 passes.
 FC-matrix built in 14 passes.
 CPU time for f12 matrices (total)                0.96 sec, Elapsed time:      1.02 sec

 Diagonal F12 approximation with fixed coefficients:  TSING= 0.500,  TTRIP= 0.250 (scaled by -1/beta)

 DF-MP2-F12 energy corrections:
 ==============================
 Approx.                                    Singlet             Triplet             Total
 DF-MP2-F12/3*C(DX,FIX)                -0.211778025061     -0.049742362427     -0.261520387488
 DF-MP2-F12/3*C(FIX)                   -0.192275589187     -0.053803664371     -0.246079253557
 DF-MP2-F12/3C(FIX)                    -0.191902578872     -0.054749709744     -0.246652288616

 DF-MP2-F12 correlation energies:
 ================================
 Approx.                                    Singlet             Triplet             Ecorr            Total Energy
 DF-MP2                                -0.500653055090     -0.303744672371     -0.804397727461   -247.910444472418
 DF-MP2-F12/3*C(DX,FIX)                -0.712431080151     -0.353487034798     -1.065918114949   -248.171964859906
 DF-MP2-F12/3*C(FIX)                   -0.692928644276     -0.357548336742     -1.050476981018   -248.156523725975
 DF-MP2-F12/3C(FIX)                    -0.692555633962     -0.358494382115     -1.051050016077   -248.157096761035

 SCS-DF-MP2 energies (F_SING= 1.20000  F_TRIP= 0.62222  F_PARALLEL= 0.33333):
 ============================================================================
 SCS-DF-MP2                            -0.789780351139   -247.895827096096
 SCS-DF-MP2-F12/3*C(DX,FIX)            -1.074864784500   -248.180911529457
 SCS-DF-MP2-F12/3*C(FIX)               -1.053988893771   -248.160035638728
 SCS-DF-MP2-F12/3C(FIX)                -1.054129931849   -248.160176676806
 Symmetry transformation completed.

 Number of N-1 electron functions:              15
 Number of N-2 electron functions:             120
 Number of singly external CSFs:              2370
 Number of doubly external CSFs:           2809635
 Total number of CSFs:                     2812006

 Pair and operator lists are different

 Length of J-op  integral file:             834.84 MB
 Length of K-op  integral file:             799.39 MB

 Integral transformation finished. Total CPU:   4.74 sec, npass=  1  Memory used:   6.97 MW

 ITER.      SQ.NORM     CORR.ENERGY   TOTAL ENERGY   ENERGY CHANGE     VAR   MIC
   1      1.00000000    -0.80443774  -247.91048448    -0.80443774  0.00D+00   0
   2      1.25587311    -0.80443774  -247.91048448     0.00000000  0.30D-15   0

 Solving MP2-F12 equations

   1      1.25630724    -1.05024264  -248.15628938    -0.24580490  0.13D-03   0
   2      1.25630724    -1.05108504  -248.15713178    -0.00084240  0.13D-16   0
   3      1.25630724    -1.05108504  -248.15713178     0.00000000  0.36D-19   0

 CPU TIME FOR ITERATIVE MP2:    1.99 SEC


 MP2-F12 energy corrections:
 ===========================
 Approx.                                    Singlet             Triplet             Total
 MP2-F12/3*C(DX,FIX)                   -0.211778025061     -0.049742362427     -0.261520387488
 MP2-F12/3*C(FIX)                      -0.192275589187     -0.053803664371     -0.246079253557
 MP2-F12/3C(FIX)                       -0.191905998217     -0.054741300795     -0.246647299012

 MP2-F12 correlation energies:
 =============================
 Approx.                                    Singlet             Triplet             Ecorr            Total Energy
 MP2                                   -0.501059076300     -0.303378662876     -0.804437739176   -247.910484484133
 MP2-F12/3*C(DX,FIX)                   -0.712837101361     -0.353121025302     -1.065958126663   -248.172004871620
 MP2-F12/3*C(FIX)                      -0.693334665487     -0.357182327246     -1.050516992733   -248.156563737690
 MP2-F12/3C(FIX)                       -0.692965074518     -0.358119963671     -1.051085038188   -248.157131783145

 SCS-MP2 energies (F_SING= 1.20000  F_TRIP= 0.62222  F_PARALLEL= 0.33333):
 =========================================================================
 SCS-MP2                               -0.790039837349   -247.896086582306
 SCS-MP2-F12/3*C(DX,FIX)               -1.075124270710   -248.181171015667
 SCS-MP2-F12/3*C(FIX)                  -1.054248379982   -248.160295124939
 SCS-MP2-F12/3C(FIX)                   -1.054388289038   -248.160435033995


  Reference energy                   -247.042011351727
  F12 singles correction               -0.064035393230

 F12 singles corrections added to reference energy

  New reference energy               -247.106046744957

  F12/3C(F) singlet correction         -0.191905998217
  F12/3C(F) triplet correction         -0.054741300795
  F12/3C(F) total correction           -0.246647299012
  MP2-F12/3C(F) singlet pair energy    -0.692965074518
  MP2-F12/3C(F) triplet pair energy    -0.358119963671
  MP2-F12/3C(F) correlation energy     -1.051085038188

 !MP2-F12/3C(F) total energy         -248.157131783145


 **********************************************************************************************************************************
 DATASETS  * FILE   NREC   LENGTH (MB)   RECORD NAMES
              1      19       55.30       500      610      700      900      950      970     1000      129      960     1100   
                                          VAR    BASINP    GEOM    SYMINP    ZMAT    AOBASIS   BASIS     P2S    ABASIS      S 
                                         1400     1410     1200     1210     1080     1600     1650     1700     1380   
                                           T        V       H0       H01     AOSYM     SMH    MOLCAS    OPER     JKOP   

              2       7        2.01       700     1000      520     2100     7360     7350     7000   
                                         GEOM     BASIS   MCVARS     RHF    F12ABS    EF12   

 PROGRAMS   *        TOTAL   MP2-F12        HF       INT
 CPU TIMES  *        23.75     19.04      1.36      3.22
 REAL TIME  *        27.25 SEC
 DISK USED  *         2.31 GB      
 SF USED    *         2.10 GB      
 GA USED    *         2.40 MB       (max)       0.00 MB       (current)
 **********************************************************************************************************************************


 PROGRAM * OPT (Geometry optimization)     Authors: F. Eckert and H.-J. Werner


 BFGS update of hessian

 *** Long output written to logfile /home/youli/nma-dimer/frequencies.log ***


 Geometry optimization using default procedure for command MP2-F12

 Geometry written to block  1 of record 700

 Generated  30 symmetrical displacements

 Making model hessian for cartesian coordinates

 Quadratic Steepest Descent - Minimum Search

 ITER.   ENERGY(OLD)    ENERGY(NEW)      DE          GRADMAX     GRADNORM    GRADRMS     STEPMAX     STEPLEN     STEPRMS   CPU-time
   1  -248.15713178  -248.15715765    -0.00002587  0.00259972  0.00470879  0.00015696  0.01110894  0.01772623  0.00511712   1419.70
   2  -248.15715765  -248.15716013    -0.00000248  0.00107305  0.00179009  0.00005967  0.00295302  0.00429305  0.00123930   2844.19
   3  -248.15716013  -248.15716034    -0.00000021  0.00052207  0.00062530  0.00002084  0.00042390  0.00102542  0.00029601   4265.83
   4  -248.15716034  -248.15716035    -0.00000001  0.00012518  0.00017074  0.00000569  0.00018510  0.00033940  0.00009798   5684.88

 END OF GEOMETRY OPTIMIZATION.

 Current geometry (xyz format, in Angstrom)

   12
 MP2-F12/AUG-CC-PVDZ  ENERGY=-248.15716035
 C          0.0953311969       -0.0000020709       -0.4725506299
 O          1.3177051408       -0.0000384439       -0.4488698390
 N         -0.6632666161       -0.0005902005        0.6562191370
 H         -1.6620486686        0.0011137519        0.5575013054
 C         -0.6755924678        0.0002003300       -1.7679105505
 H         -1.7546102733        0.0001840929       -1.6302746722
 H         -0.3857497149        0.8782417026       -2.3403545717
 H         -0.3857955672       -0.8777225589       -2.3405618774
 C         -0.0786083420        0.0002839219        1.9765389856
 H         -0.3661162600        0.8909839311        2.5323323184
 H          0.9998394518       -0.0064755113        1.8490879152
 H         -0.3769855905       -0.8834511348        2.5375813802

 **********************************************************************************************************************************

 Geometry written to block  1 of record 700


 **********************************************************************************************************************************
 DATASETS  * FILE   NREC   LENGTH (MB)   RECORD NAMES
              1      19       55.30       500      610      700      900      950      970     1000      129      960     1100   
                                          VAR    BASINP    GEOM    SYMINP    ZMAT    AOBASIS   BASIS     P2S    ABASIS      S 
                                         1400     1410     1200     1210     1080     1600     1650     1700     1380   
                                           T        V       H0       H01     AOSYM     SMH    MOLCAS    OPER     JKOP   

              2       8        2.01       700     1000      520     2100     7360     7350     7000     5600   
                                         GEOM     BASIS   MCVARS     RHF    F12ABS    EF12              GINFO   

 PROGRAMS   *        TOTAL      OPTG   MP2-F12        HF       INT
 CPU TIMES  *      5708.63   5684.88     19.04      1.36      3.22
 REAL TIME  *      6478.90 SEC
 DISK USED  *         3.06 GB      
 SF USED    *         2.10 GB      
 GA USED    *         2.40 MB       (max)       0.00 MB       (current)
 **********************************************************************************************************************************


 PROGRAM * HESSIAN

 Computing numerical hessian using default procedure for command MP2-F12

 Using no symmetry in wavefunction calculations

 Running default procedure: HF-SCF000  MP2-F12
 

 Numerically approximating hessian using central energy differences

 Task list generated. Total number of displacements:   1332

  133 tasks completed, CPU=57m 13s Elapsed=58m 58s
  266 tasks completed, CPU=1h 54m 31s Elapsed=1h 58m 1s
  399 tasks completed, CPU=2h 51m 30s Elapsed=2h 56m 43s
  532 tasks completed, CPU=3h 48m 18s Elapsed=3h 55m 17s
  665 tasks completed, CPU=4h 45m 29s Elapsed=4h 54m 12s
  798 tasks completed, CPU=5h 42m 38s Elapsed=5h 53m 3s
  931 tasks completed, CPU=6h 39m 39s Elapsed=6h 51m 48s
 1064 tasks completed, CPU=7h 36m 47s Elapsed=7h 50m 40s
 1197 tasks completed, CPU=8h 33m 36s Elapsed=8h 49m 13s
 1330 tasks completed, CPU=9h 30m 41s Elapsed=9h 48m 2s

 Numerical MP2-F12 hessian completed. CPU-time: 34292.04 sec, Elapsed: 35334.86 sec

 MP2-F12 hessian saved to record  5300.2

 FREQUENCIES * CALCULATION OF HARMONIC VIBRATIONAL SPECTRA FOR MP2-F12


 Permanent Dipole Moment [debye]
   1-  3    0.000000    0.000000    0.000000

 Dipole Moment Norm    0.0000000 [debye]

 Dipole Moment Derivatives [debye/ang]
                   1             2             3             4             5             6             7             8
         1     0.0000000     0.0000000     0.0000000     0.0000000     0.0000000     0.0000000     0.0000000     0.0000000
         2     0.0000000     0.0000000     0.0000000     0.0000000     0.0000000     0.0000000     0.0000000     0.0000000
         3     0.0000000     0.0000000     0.0000000     0.0000000     0.0000000     0.0000000     0.0000000     0.0000000
                   9            10            11            12            13            14            15            16
         1     0.0000000     0.0000000     0.0000000     0.0000000     0.0000000     0.0000000     0.0000000     0.0000000
         2     0.0000000     0.0000000     0.0000000     0.0000000     0.0000000     0.0000000     0.0000000     0.0000000
         3     0.0000000     0.0000000     0.0000000     0.0000000     0.0000000     0.0000000     0.0000000     0.0000000
                  17            18            19            20            21            22            23            24
         1     0.0000000     0.0000000     0.0000000     0.0000000     0.0000000     0.0000000     0.0000000     0.0000000
         2     0.0000000     0.0000000     0.0000000     0.0000000     0.0000000     0.0000000     0.0000000     0.0000000
         3     0.0000000     0.0000000     0.0000000     0.0000000     0.0000000     0.0000000     0.0000000     0.0000000
                  25            26            27            28            29            30            31            32
         1     0.0000000     0.0000000     0.0000000     0.0000000     0.0000000     0.0000000     0.0000000     0.0000000
         2     0.0000000     0.0000000     0.0000000     0.0000000     0.0000000     0.0000000     0.0000000     0.0000000
         3     0.0000000     0.0000000     0.0000000     0.0000000     0.0000000     0.0000000     0.0000000     0.0000000
                  33            34            35            36
         1     0.0000000     0.0000000     0.0000000     0.0000000
         2     0.0000000     0.0000000     0.0000000     0.0000000
         3     0.0000000     0.0000000     0.0000000     0.0000000

 Projecting out rotations and translations

Forece constant
                             GX1         GY1         GZ1         GX2         GY2     
           GX1           0.9490217
           GY1          -0.0000951   0.2198586
           GZ1          -0.0004608  -0.0000940   0.6317675
           GX2          -0.6546988   0.0000190  -0.0362649   0.7751340
           GY2           0.0000824  -0.0785121   0.0000121   0.0000255   0.0353315
           GZ2          -0.0267056   0.0000279  -0.1107690   0.0046448  -0.0000481
           GX3          -0.1776387  -0.0000055   0.0917730  -0.0784531  -0.0000136
           GY3           0.0000425  -0.0431812  -0.0001276  -0.0002231   0.0191161
           GZ3           0.0716763   0.0001387  -0.2932569   0.0430831   0.0000573
           GX4          -0.0171168   0.0000407  -0.0082109   0.0021201  -0.0000182
           GY4          -0.0000133  -0.0091446   0.0000984   0.0001070   0.0084467
           GZ4           0.0279391  -0.0000646   0.0128834   0.0064342   0.0000034
           GX5          -0.1049892   0.0000231  -0.0547981  -0.0419041   0.0000059
           GY5          -0.0000442  -0.0826921  -0.0000863  -0.0001077   0.0153908
           GZ5          -0.0424127   0.0000103  -0.1814914  -0.0134761   0.0000125
           GX6          -0.0156077   0.0000091   0.0116516  -0.0010892  -0.0000173
           GY6           0.0000248  -0.0047006   0.0000155   0.0000358   0.0028341
           GZ6          -0.0262124  -0.0000009   0.0118869  -0.0070213  -0.0000064
           GX7           0.0033490   0.0160857  -0.0072471   0.0001205  -0.0019818
           GY7          -0.0006177   0.0009842  -0.0023226   0.0006571   0.0008306
           GZ7           0.0096882   0.0262163  -0.0178177   0.0014244  -0.0031911
           GX8           0.0033588  -0.0160740  -0.0072495   0.0001305   0.0019617
           GY8           0.0006586   0.0009905   0.0023923  -0.0005756   0.0008344
           GZ8           0.0096895  -0.0262232  -0.0178324   0.0014288   0.0031644
           GX9           0.0260768  -0.0000449   0.0061393  -0.0061756   0.0000648
           GY9          -0.0001908  -0.0056903   0.0000272  -0.0000578  -0.0019132
           GZ9          -0.0032504  -0.0000103  -0.0381030  -0.0082185   0.0000312
           GX10         -0.0047764  -0.0008774   0.0011386   0.0022071  -0.0009655
           GY10         -0.0003059   0.0002163   0.0017498   0.0000206  -0.0002696
           GZ10         -0.0071634  -0.0033712   0.0008923   0.0022679  -0.0001007
           GX11         -0.0021438  -0.0000020   0.0024286   0.0003721  -0.0000558
           GY11          0.0000705   0.0016577   0.0000285   0.0000332  -0.0018199
           GZ11         -0.0056560  -0.0000046   0.0010223   0.0034688  -0.0000197
           GX12         -0.0048348   0.0009213   0.0011001   0.0022365   0.0009121
           GY12          0.0003883   0.0002137  -0.0016932   0.0000660  -0.0002695
           GZ12         -0.0071318   0.0033755   0.0008179   0.0022290   0.0000850
                             GZ2         GX3         GY3         GZ3         GX4     
           GZ2           0.1044319
           GX3           0.0552836   0.8524501
           GY3          -0.0001082  -0.0009342   0.0600356
           GZ3           0.0078622  -0.0113953   0.0000435   0.6910526
           GX4           0.0038422  -0.4641344   0.0008043  -0.0363209   0.4794112
           GY4           0.0000812   0.0009378  -0.0015868   0.0001391  -0.0008399
           GZ4          -0.0065762  -0.0417416   0.0001279  -0.0731741   0.0402692
           GX5          -0.0378026   0.0112046  -0.0000380   0.0153163   0.0009742
           GY5          -0.0000748  -0.0001042   0.0100602  -0.0000413   0.0000602
           GZ5           0.0056035  -0.0126396  -0.0001261  -0.0380721  -0.0010127
           GX6          -0.0057989   0.0019920   0.0001040   0.0010824   0.0008838
           GY6           0.0000276   0.0000330  -0.0003855   0.0000362  -0.0000130
           GZ6          -0.0068636   0.0015545   0.0000795  -0.0000554  -0.0004898
           GX7           0.0000813  -0.0007498  -0.0002577  -0.0007077   0.0000733
           GY7          -0.0001688   0.0004057  -0.0000768  -0.0006463   0.0000512
           GZ7           0.0025127  -0.0029067  -0.0010821  -0.0035728  -0.0004211
           GX8           0.0000914  -0.0007468   0.0004446  -0.0007003   0.0000676
           GY8           0.0002346  -0.0003133  -0.0000794   0.0006444  -0.0000995
           GZ8           0.0025212  -0.0029016   0.0012441  -0.0035631  -0.0004282
           GX9           0.0006878  -0.1382350  -0.0001572  -0.0456742  -0.0030965
           GY9          -0.0000443  -0.0001182  -0.0599639  -0.0004192   0.0001091
           GZ9           0.0006436  -0.0541919  -0.0002462  -0.2261315   0.0035337
           GX10          0.0013216   0.0059614  -0.0134087  -0.0158226   0.0000334
           GY10         -0.0001922  -0.0033019   0.0084782   0.0001950   0.0000862
           GZ10          0.0004073   0.0082651  -0.0235449  -0.0303385   0.0001806
           GX11          0.0029681  -0.0178207   0.0001153  -0.0046202   0.0007506
           GY11          0.0000444  -0.0000226  -0.0007831   0.0000952  -0.0000462
           GZ11         -0.0001798  -0.0397452   0.0003078  -0.0003481  -0.0011213
           GX12          0.0013863   0.0061706   0.0135082  -0.0159170   0.0000336
           GY12          0.0002206   0.0034371   0.0083664  -0.0002426  -0.0001349
           GZ12          0.0004063   0.0086457   0.0234323  -0.0304023   0.0001793
                             GY4         GZ4         GX5         GY5         GZ5     
           GY4           0.0083931
           GZ4          -0.0001129   0.0728619
           GX5           0.0000313   0.0014745   0.5896981
           GY5          -0.0033819   0.0000597  -0.0000137   0.5569266
           GZ5           0.0000821  -0.0005673  -0.0465687  -0.0001218   0.5085130
           GX6          -0.0000614  -0.0012208  -0.3200290   0.0000627   0.0357225
           GY6           0.0007840  -0.0000180  -0.0000038  -0.0465080   0.0000214
           GZ6          -0.0000542  -0.0023291   0.0393658   0.0000593  -0.0560600
           GX7          -0.0004215  -0.0005090  -0.0666516  -0.0618331   0.0389406
           GY7           0.0000749  -0.0000674  -0.0618128  -0.2294382   0.1213835
           GZ7           0.0006733   0.0001458   0.0389424   0.1233013  -0.1188997
           GX8           0.0002995  -0.0005131  -0.0666379   0.0619434   0.0389573
           GY8           0.0000748   0.0000235   0.0618129  -0.2293841  -0.1213030
           GZ8          -0.0007867   0.0001445   0.0389525  -0.1232137  -0.1189516
           GX9           0.0001138  -0.0307019  -0.0017318  -0.0001462   0.0031274
           GY9          -0.0028265   0.0001445  -0.0000440   0.0092065  -0.0000912
           GZ9           0.0000507   0.0023104   0.0031356  -0.0000859   0.0009762
           GX10         -0.0006686   0.0001528   0.0002954   0.0012636  -0.0002252
           GY10         -0.0002539  -0.0007613  -0.0000277  -0.0002551   0.0000446
           GZ10         -0.0001971   0.0002975   0.0006665   0.0017913  -0.0007206
           GX11         -0.0000327  -0.0017525  -0.0005328   0.0000742  -0.0001898
           GY11         -0.0003345  -0.0000465   0.0000157   0.0003169   0.0000482
           GZ11         -0.0000406  -0.0063110   0.0006413   0.0000597   0.0003929
           GX12          0.0005480   0.0001692   0.0003042  -0.0011549  -0.0002228
           GY12         -0.0002454   0.0007116   0.0000512  -0.0002416   0.0000394
           GZ12          0.0000668   0.0003144   0.0006744  -0.0016474  -0.0007229
                             GX6         GY6         GZ6         GX7         GY7     
           GX6           0.3459089
           GY6          -0.0000248   0.0447916
           GZ6          -0.0404760  -0.0000157   0.0576831
           GX7          -0.0063209  -0.0262992   0.0166180   0.0683715
           GY7           0.0017856   0.0015719  -0.0025593   0.0674108   0.2465281
           GZ7          -0.0003074   0.0017310  -0.0025842  -0.0414057  -0.1306975
           GX8          -0.0063291   0.0262623   0.0166210   0.0014094  -0.0078326
           GY8          -0.0018329   0.0015708   0.0025138   0.0077801  -0.0201390
           GZ8          -0.0003113  -0.0017694  -0.0025859  -0.0053443   0.0153127
           GX9           0.0005201   0.0000303   0.0003183   0.0004593  -0.0000181
           GY9           0.0000739   0.0000872   0.0000711  -0.0004605  -0.0002368
           GZ9          -0.0004853   0.0000202   0.0004299  -0.0003111  -0.0001368
           GX10         -0.0000378  -0.0000255  -0.0000192  -0.0000807  -0.0000064
           GY10         -0.0000075  -0.0000131  -0.0000274  -0.0000026  -0.0000588
           GZ10         -0.0000519  -0.0000309   0.0000482  -0.0002062  -0.0001110
           GX11          0.0001518  -0.0000105  -0.0002352   0.0000258  -0.0000279
           GY11         -0.0000402  -0.0000202  -0.0000364  -0.0000166  -0.0000250
           GZ11          0.0002492  -0.0000155   0.0003833   0.0000799  -0.0000001
           GX12         -0.0000428  -0.0000093  -0.0000237  -0.0000058   0.0000050
           GY12         -0.0000512  -0.0000122  -0.0000233  -0.0000036  -0.0000151
           GZ12         -0.0000541  -0.0000023   0.0000468   0.0000112   0.0000135
                             GZ7         GX8         GY8         GZ8         GX9     
           GZ7           0.1316952
           GX8          -0.0053495   0.0683503
           GY8          -0.0153710  -0.0674486   0.2464756
           GZ8           0.0095088  -0.0414222   0.1307068   0.1317548
           GX9           0.0005761   0.0004750   0.0001117   0.0005873   0.5920901
           GY9          -0.0016485   0.0006233  -0.0002434   0.0018084  -0.0000852
           GZ9          -0.0004559  -0.0003055   0.0002092  -0.0004594  -0.0540129
           GX10         -0.0003270  -0.0000039  -0.0000476   0.0001066  -0.0716457
           GY10          0.0000867  -0.0000598  -0.0000170  -0.0000711   0.0644832
           GZ10         -0.0005644   0.0000094  -0.0000619   0.0001082   0.0369727
           GX11         -0.0000168   0.0000175  -0.0000085  -0.0000203  -0.3255241
           GY11         -0.0000347  -0.0000608  -0.0000260  -0.0000362   0.0018314
           GZ11         -0.0000740   0.0000740  -0.0000527  -0.0000789   0.0433553
           GX12          0.0001030  -0.0000913  -0.0000372  -0.0003366  -0.0732127
           GY12          0.0000164  -0.0000590  -0.0000572  -0.0001362  -0.0661836
           GZ12          0.0001062  -0.0002131   0.0000640  -0.0005662   0.0386248
                             GY9         GZ9         GX10        GY10        GZ10    
           GY9           0.5868337
           GZ9          -0.0001507   0.5322300
           GX10          0.0652127   0.0406572   0.0702371
           GY10         -0.2392196  -0.1094996  -0.0690143   0.2514273
           GZ10         -0.1052414  -0.1088648  -0.0366528   0.1198775   0.1313210
           GX11          0.0017984   0.0310280  -0.0050487  -0.0012829   0.0005942
           GY11         -0.0496016  -0.0001828   0.0283135   0.0009283  -0.0023044
           GZ11         -0.0002206  -0.0523418   0.0146474   0.0017032  -0.0016583
           GX12         -0.0668610   0.0424209   0.0028587   0.0094126  -0.0048822
           GY12         -0.2364322   0.1100011  -0.0097759  -0.0209630   0.0132948
           GZ12          0.1057646  -0.1102337  -0.0049774  -0.0131052   0.0090722
                             GX11        GY11        GZ11        GX12        GY12    
           GX11          0.3550810
           GY11         -0.0018831   0.0484378
           GZ11         -0.0307782   0.0002489   0.0608591
           GX12         -0.0053287  -0.0281948   0.0147849   0.0719126
           GY12          0.0013154   0.0012696  -0.0019657   0.0709501   0.2483865
           GZ12          0.0005941   0.0021759  -0.0016658  -0.0385821  -0.1202229
                             GZ12    
           GZ12          0.1328272


 Atomic Masses
   1- 10   12.011000   15.999400   14.006700    1.007940   12.011000    1.007940    1.007940    1.007940   12.011000    1.007940
  11- 12    1.007940    1.007940

####
                             GX1         GY1         GZ1         GX2         GY2     
           GX1           0.0790127
           GY1          -0.0000079   0.0183048
           GZ1          -0.0000384  -0.0000078   0.0525991
           GX2          -0.0472281   0.0000014  -0.0026160   0.0484477
           GY2           0.0000059  -0.0056636   0.0000009   0.0000016   0.0022083
           GZ2          -0.0019265   0.0000020  -0.0079906   0.0002903  -0.0000030
           GX3          -0.0136956  -0.0000004   0.0070755  -0.0052407  -0.0000009
           GY3           0.0000033  -0.0033292  -0.0000098  -0.0000149   0.0012770
           GZ3           0.0055261   0.0000107  -0.0226095   0.0028780   0.0000038
           GX4          -0.0049194   0.0000117  -0.0023598   0.0005279  -0.0000045
           GY4          -0.0000038  -0.0026282   0.0000283   0.0000266   0.0021034
           GZ4           0.0080298  -0.0000186   0.0037027   0.0016022   0.0000009
           GX5          -0.0087411   0.0000019  -0.0045623  -0.0030228   0.0000004
           GY5          -0.0000037  -0.0068847  -0.0000072  -0.0000078   0.0011103
           GZ5          -0.0035312   0.0000009  -0.0151104  -0.0009721   0.0000009
           GX6          -0.0044857   0.0000026   0.0033487  -0.0002712  -0.0000043
           GY6           0.0000071  -0.0013510   0.0000044   0.0000089   0.0007057
           GZ6          -0.0075336  -0.0000003   0.0034164  -0.0017484  -0.0000016
           GX7           0.0009625   0.0046231  -0.0020828   0.0000300  -0.0004935
           GY7          -0.0001775   0.0002829  -0.0006675   0.0001636   0.0002068
           GZ7           0.0027844   0.0075347  -0.0051209   0.0003547  -0.0007946
           GX8           0.0009653  -0.0046197  -0.0020835   0.0000325   0.0004885
           GY8           0.0001893   0.0002847   0.0006876  -0.0001433   0.0002078
           GZ8           0.0027848  -0.0075366  -0.0051251   0.0003558   0.0007880
           GX9           0.0021711  -0.0000037   0.0005111  -0.0004455   0.0000047
           GY9          -0.0000159  -0.0004738   0.0000023  -0.0000042  -0.0001380
           GZ9          -0.0002706  -0.0000009  -0.0031723  -0.0005929   0.0000022
           GX10         -0.0013728  -0.0002522   0.0003273   0.0005496  -0.0002404
           GY10         -0.0000879   0.0000622   0.0005029   0.0000051  -0.0000671
           GZ10         -0.0020588  -0.0009689   0.0002565   0.0005648  -0.0000251
           GX11         -0.0006161  -0.0000006   0.0006980   0.0000927  -0.0000139
           GY11          0.0000203   0.0004764   0.0000082   0.0000083  -0.0004532
           GZ11         -0.0016256  -0.0000013   0.0002938   0.0008638  -0.0000049
           GX12         -0.0013895   0.0002648   0.0003162   0.0005569   0.0002271
           GY12          0.0001116   0.0000614  -0.0004866   0.0000164  -0.0000671
           GZ12         -0.0020497   0.0009701   0.0002351   0.0005551   0.0000212
                             GZ2         GX3         GY3         GZ3         GX4     
           GZ2           0.0065272
           GX3           0.0036930   0.0608602
           GY3          -0.0000072  -0.0000667   0.0042862
           GZ3           0.0005252  -0.0008136   0.0000031   0.0493373
           GX4           0.0009568  -0.1235260   0.0002141  -0.0096666   0.4756347
           GY4           0.0000202   0.0002496  -0.0004223   0.0000370  -0.0008333
           GZ4          -0.0016376  -0.0111092   0.0000340  -0.0194748   0.0399519
           GX5          -0.0027270   0.0008639  -0.0000029   0.0011809   0.0002800
           GY5          -0.0000054  -0.0000080   0.0007756  -0.0000032   0.0000173
           GZ5           0.0004042  -0.0009745  -0.0000097  -0.0029353  -0.0002911
           GX6          -0.0014440   0.0005302   0.0000277   0.0002881   0.0008768
           GY6           0.0000069   0.0000088  -0.0001026   0.0000096  -0.0000129
           GZ6          -0.0017092   0.0004137   0.0000211  -0.0000147  -0.0004859
           GX7           0.0000203  -0.0001996  -0.0000686  -0.0001883   0.0000728
           GY7          -0.0000420   0.0001080  -0.0000204  -0.0001720   0.0000508
           GZ7           0.0006257  -0.0007736  -0.0002880  -0.0009509  -0.0004177
           GX8           0.0000228  -0.0001988   0.0001183  -0.0001864   0.0000671
           GY8           0.0000584  -0.0000834  -0.0000211   0.0001715  -0.0000988
           GZ8           0.0006278  -0.0007722   0.0003311  -0.0009483  -0.0004248
           GX9           0.0000496  -0.0106576  -0.0000121  -0.0035214  -0.0008900
           GY9          -0.0000032  -0.0000091  -0.0046231  -0.0000323   0.0000314
           GZ9           0.0000464  -0.0041781  -0.0000190  -0.0174343   0.0010156
           GX10          0.0003291   0.0015866  -0.0035686  -0.0042111   0.0000332
           GY10         -0.0000479  -0.0008788   0.0022564   0.0000519   0.0000855
           GZ10          0.0001014   0.0021997  -0.0062663  -0.0080744   0.0001791
           GX11          0.0007391  -0.0047429   0.0000307  -0.0012296   0.0007447
           GY11          0.0000111  -0.0000060  -0.0002084   0.0000253  -0.0000459
           GZ11         -0.0000448  -0.0105779   0.0000819  -0.0000927  -0.0011125
           GX12          0.0003452   0.0016423   0.0035951  -0.0042362   0.0000333
           GY12          0.0000549   0.0009148   0.0022267  -0.0000646  -0.0001338
           GZ12          0.0001012   0.0023010   0.0062363  -0.0080914   0.0001779
                             GY4         GZ4         GX5         GY5         GZ5     
           GY4           0.0083270
           GZ4          -0.0001120   0.0722879
           GX5           0.0000090   0.0004238   0.0490965
           GY5          -0.0009720   0.0000171  -0.0000011   0.0463680
           GZ5           0.0000236  -0.0001631  -0.0038772  -0.0000101   0.0423373
           GX6          -0.0000609  -0.0012112  -0.0919777   0.0000180   0.0102668
           GY6           0.0007778  -0.0000178  -0.0000011  -0.0133666   0.0000062
           GZ6          -0.0000538  -0.0023108   0.0113139   0.0000170  -0.0161119
           GX7          -0.0004182  -0.0005050  -0.0191559  -0.0177711   0.0111917
           GY7           0.0000743  -0.0000669  -0.0177652  -0.0659415   0.0348861
           GZ7           0.0006680   0.0001446   0.0111922   0.0354373  -0.0341723
           GX8           0.0002972  -0.0005090  -0.0191520   0.0178028   0.0111965
           GY8           0.0000742   0.0000233   0.0177653  -0.0659260  -0.0348630
           GZ8          -0.0007805   0.0001433   0.0111951  -0.0354121  -0.0341872
           GX9           0.0000327  -0.0088239  -0.0001442  -0.0000122   0.0002604
           GY9          -0.0008123   0.0000415  -0.0000037   0.0007665  -0.0000076
           GZ9           0.0000146   0.0006640   0.0002611  -0.0000072   0.0000813
           GX10         -0.0006633   0.0001516   0.0000849   0.0003632  -0.0000647
           GY10         -0.0002519  -0.0007553  -0.0000080  -0.0000733   0.0000128
           GZ10         -0.0001956   0.0002951   0.0001916   0.0005148  -0.0002071
           GX11         -0.0000324  -0.0017387  -0.0001531   0.0000213  -0.0000546
           GY11         -0.0003319  -0.0000461   0.0000045   0.0000911   0.0000138
           GZ11         -0.0000403  -0.0062613   0.0001843   0.0000171   0.0001129
           GX12          0.0005436   0.0001678   0.0000874  -0.0003319  -0.0000640
           GY12         -0.0002434   0.0007059   0.0000147  -0.0000694   0.0000113
           GZ12          0.0000663   0.0003119   0.0001938  -0.0004735  -0.0002078
                             GX6         GY6         GZ6         GX7         GY7     
           GX6           0.3431840
           GY6          -0.0000247   0.0444388
           GZ6          -0.0401572  -0.0000156   0.0572287
           GX7          -0.0062711  -0.0260920   0.0164871   0.0678329
           GY7           0.0017716   0.0015595  -0.0025391   0.0668798   0.2445861
           GZ7          -0.0003049   0.0017174  -0.0025638  -0.0410796  -0.1296680
           GX8          -0.0062792   0.0260554   0.0164901   0.0013983  -0.0077709
           GY8          -0.0018184   0.0015585   0.0024940   0.0077188  -0.0199804
           GZ8          -0.0003089  -0.0017555  -0.0025655  -0.0053022   0.0151921
           GX9           0.0001495   0.0000087   0.0000915   0.0001320  -0.0000052
           GY9           0.0000212   0.0000251   0.0000204  -0.0001323  -0.0000681
           GZ9          -0.0001395   0.0000058   0.0001236  -0.0000894  -0.0000393
           GX10         -0.0000375  -0.0000253  -0.0000191  -0.0000800  -0.0000063
           GY10         -0.0000074  -0.0000130  -0.0000272  -0.0000026  -0.0000583
           GZ10         -0.0000515  -0.0000307   0.0000478  -0.0002046  -0.0001101
           GX11          0.0001506  -0.0000105  -0.0002333   0.0000256  -0.0000277
           GY11         -0.0000399  -0.0000201  -0.0000362  -0.0000165  -0.0000248
           GZ11          0.0002473  -0.0000154   0.0003803   0.0000793  -0.0000001
           GX12         -0.0000425  -0.0000093  -0.0000235  -0.0000058   0.0000049
           GY12         -0.0000508  -0.0000121  -0.0000231  -0.0000036  -0.0000150
           GZ12         -0.0000537  -0.0000023   0.0000464   0.0000111   0.0000134
                             GZ7         GX8         GY8         GZ8         GX9     
           GZ7           0.1306577
           GX8          -0.0053073   0.0678119
           GY8          -0.0152500  -0.0669172   0.2445340
           GZ8           0.0094339  -0.0410959   0.1296771   0.1307169
           GX9           0.0001656   0.0001365   0.0000321   0.0001688   0.0492957
           GY9          -0.0004738   0.0001792  -0.0000700   0.0005197  -0.0000071
           GZ9          -0.0001310  -0.0000878   0.0000601  -0.0001320  -0.0044969
           GX10         -0.0003244  -0.0000039  -0.0000472   0.0001057  -0.0205913
           GY10          0.0000860  -0.0000593  -0.0000169  -0.0000706   0.0185327
           GZ10         -0.0005599   0.0000094  -0.0000614   0.0001074   0.0106261
           GX11         -0.0000167   0.0000173  -0.0000084  -0.0000201  -0.0935570
           GY11         -0.0000344  -0.0000604  -0.0000258  -0.0000359   0.0005264
           GZ11         -0.0000734   0.0000734  -0.0000522  -0.0000783   0.0124605
           GX12          0.0001022  -0.0000905  -0.0000369  -0.0003339  -0.0210416
           GY12          0.0000163  -0.0000586  -0.0000567  -0.0001352  -0.0190214
           GZ12          0.0001054  -0.0002114   0.0000635  -0.0005618   0.0111009
                             GY9         GZ9         GX10        GY10        GZ10    
           GY9           0.0488580
           GZ9          -0.0000125   0.0443119
           GX10          0.0187424   0.0116851   0.0696838
           GY10         -0.0687527  -0.0314706  -0.0684706   0.2494467
           GZ10         -0.0302468  -0.0312882  -0.0363641   0.1189331   0.1302865
           GX11          0.0005169   0.0089176  -0.0050089  -0.0012728   0.0005895
           GY11         -0.0142557  -0.0000525   0.0280904   0.0009210  -0.0022863
           GZ11         -0.0000634  -0.0150432   0.0145320   0.0016898  -0.0016453
           GX12         -0.0192161   0.0121919   0.0028361   0.0093385  -0.0048437
           GY12         -0.0679516   0.0316148  -0.0096989  -0.0207978   0.0131900
           GZ12          0.0303972  -0.0316816  -0.0049382  -0.0130020   0.0090007
                             GX11        GY11        GZ11        GX12        GY12    
           GX11          0.3522838
           GY11         -0.0018682   0.0480562
           GZ11         -0.0305358   0.0002469   0.0603797
           GX12         -0.0052868  -0.0279727   0.0146685   0.0713461
           GY12          0.0013050   0.0012596  -0.0019502   0.0703912   0.2464298
           GZ12          0.0005894   0.0021587  -0.0016527  -0.0382781  -0.1192758
                             GZ12    
           GZ12          0.1317808


 Mass Weighted 2nd Derivative Matrix Eigenvalues
   1- 10    0.000000    0.000000    0.000000    0.000000    0.000000    0.000000    0.000056    0.000222    0.001018    0.003277
  11- 20    0.007211    0.007475    0.015031    0.015205    0.029241    0.038389    0.041793    0.048265    0.051292    0.052454
  21- 30    0.062512    0.074337    0.079018    0.083074    0.084905    0.086702    0.087063    0.094331    0.116683    0.359128
  31- 36    0.361137    0.377849    0.384759    0.384903    0.387592    0.513865

 Mass Weighted 2nd Derivative Matrix Eigenvectors
                   1             2             3             4             5             6             7             8
         1    -0.0095707     0.0576055     0.0269315     0.0395070     0.4153582     0.0392070     0.0010059     0.0005784
         2     0.0471389    -0.1029186     0.0286959     0.1366745    -0.0364915     0.3918794    -0.0155021     0.1120480
         3    -0.3283470    -0.1371914     0.0368408     0.1818793     0.0052259    -0.0621782    -0.0001259    -0.0000375
         4    -0.0116740     0.0720600     0.0293302     0.0482651     0.4762672     0.0457002     0.0011479     0.0007148
         5     0.4417242    -0.2587756     0.1738132     0.6585866    -0.0527004     0.2633409    -0.1628901     0.2131879
         6    -0.3459467    -0.4463103     0.1332092     0.0729607     0.1669886    -0.0952558    -0.0023665     0.0005178
         7    -0.0386867     0.3109557    -0.0492035     0.1612176     0.3094665     0.0625500     0.0010119     0.0002491
         8    -0.2070031     0.0965038     0.2781884    -0.2089710    -0.0568089     0.4289890     0.1937899     0.0335632
         9    -0.3737659     0.0191300    -0.0127002     0.2758987    -0.0878310    -0.0535595     0.0000468    -0.0006717
        10    -0.0098445     0.0776284    -0.0114078     0.0402958     0.0862824     0.0163686     0.0002239     0.0000476
        11    -0.1343482     0.0522451     0.0396477    -0.1575487    -0.0126303     0.1557636    -0.0036764    -0.0005298
        12    -0.1070228     0.0641403    -0.0221350     0.1021247    -0.0565617    -0.0095088    -0.0004111    -0.0003429
        13     0.0206882    -0.2067847     0.1101704    -0.0863116     0.5631468     0.0176666    -0.0004927    -0.0007109
        14    -0.1302833    -0.1574445    -0.3892294    -0.0688368    -0.0062905     0.6028770     0.0068864    -0.1134117
        15    -0.3463830     0.0201499    -0.0127635     0.2567271    -0.0827247    -0.0493256     0.0007878     0.0006115
        16     0.0050613    -0.0517646     0.0293526    -0.0211311     0.1585869     0.0057810    -0.0000905    -0.0001848
        17    -0.1247830    -0.0098933    -0.1316937    -0.1333529    -0.0003532     0.2126433     0.0694734     0.4585757
        18    -0.1076575     0.0696412    -0.0237867     0.1047133    -0.0596260    -0.0090851     0.0006132     0.0005702
        19    -0.0600883    -0.0680083     0.0185199    -0.1316615     0.1838694     0.0360077     0.0511116     0.3783913
        20    -0.0102141    -0.0710765    -0.1489833     0.0187820     0.0007412     0.1774916    -0.0318960    -0.3403643
        21    -0.0915785    -0.0373294    -0.0660492     0.0797618    -0.0095343     0.0057174    -0.0255600    -0.2747424
        22     0.0798280    -0.1195044     0.0666275     0.0494413     0.1802481    -0.0312906    -0.0517927    -0.3798675
        23    -0.0102161    -0.0710813    -0.1490005     0.0187805     0.0007424     0.1774984    -0.0319162    -0.3404793
        24    -0.1051757     0.0147254     0.0694377     0.0526805    -0.0192363    -0.0370881     0.0258460     0.2745559
        25    -0.0669639     0.5575460    -0.1305087     0.2771494     0.1359445     0.0800211    -0.0021862    -0.0002846
        26    -0.0661679     0.1652968     0.6645679    -0.0556470    -0.0819548     0.2087982    -0.0095569    -0.1620606
        27    -0.3324100    -0.1017159     0.0255849     0.1987796    -0.0146134    -0.0592581     0.0015222    -0.0002919
        28    -0.0941372     0.2204929    -0.0725553     0.0040498     0.0228525     0.0599977    -0.4439336     0.0542604
        29    -0.0463802     0.0727892     0.2275242    -0.0543456    -0.0262175     0.0579559    -0.2750177    -0.0401003
        30    -0.0913468    -0.0388681    -0.0666668     0.0794062    -0.0088150     0.0059334     0.2027990     0.0171871
        31    -0.0179959     0.1537789    -0.0352483     0.0773994     0.0435795     0.0223072     0.0024634    -0.0004749
        32     0.0677495     0.0124867     0.2122257     0.0970757    -0.0252654     0.0222614     0.5438712    -0.1078668
        33    -0.0890357    -0.0930352     0.0280131     0.0271522     0.0313723    -0.0225325    -0.0015657    -0.0001438
        34     0.0472139     0.1687778    -0.0240433     0.1872112     0.0190127    -0.0079821     0.4394479    -0.0545083
        35    -0.0472869     0.0732634     0.2276315    -0.0555476    -0.0262240     0.0582445    -0.2815360    -0.0395794
        36    -0.1051604     0.0143743     0.0700437     0.0523444    -0.0189767    -0.0372703    -0.2000071    -0.0176174
                   9            10            11            12            13            14            15            16
         1     0.0019468    -0.2512875     0.1931626     0.0265321     0.0044528    -0.0003834    -0.2203085    -0.0921370
         2     0.1188842     0.0011669    -0.0375571     0.2934324    -0.0670665     0.6669780     0.0001108     0.0017157
         3    -0.0004476     0.0499394    -0.0450036    -0.0058842     0.2415915     0.0248590    -0.0502812    -0.2784055
         4     0.0024299    -0.2937474     0.2320427     0.0314317     0.0274259     0.0019362    -0.3827017    -0.2710751
         5     0.0706631     0.0004184     0.0007697    -0.0177435     0.0336850    -0.3360712    -0.0001823    -0.0004387
         6    -0.0003258     0.4165104     0.4796874     0.0594018    -0.4227140    -0.0426542     0.1227832    -0.0296078
         7     0.0017562    -0.2629554    -0.0432321    -0.0065664    -0.3118254    -0.0308231     0.5151543    -0.0722777
         8     0.6762095     0.0037488     0.0297713    -0.2445399     0.0174469    -0.1552258     0.0004411     0.0001515
         9    -0.0010778     0.0414870    -0.2968893    -0.0397346    -0.0206501    -0.0009957    -0.1765852    -0.0773004
        10     0.0002160    -0.0783611    -0.0066330     0.0005687    -0.0749849    -0.0081457     0.1334521    -0.0351636
        11     0.0018880     0.0038608    -0.1137782     0.8598245     0.0373249    -0.4174126     0.0002216    -0.0008740
        12    -0.0009710     0.0889946    -0.1070239    -0.0141356    -0.0747622    -0.0070458     0.0506464     0.1188317
        13    -0.0023650     0.2097966    -0.2901596    -0.0378056     0.2784073     0.0285970     0.0356713     0.4834946
        14    -0.3115882    -0.0023368     0.0118922    -0.0788343    -0.0073602     0.0710070    -0.0003625    -0.0015049
        15     0.0011286    -0.1987008     0.2514867     0.0360129     0.5407913     0.0528037     0.2955370     0.0405756
        16    -0.0006600     0.0447954    -0.0534787    -0.0065752     0.0730931     0.0072300    -0.0077903     0.2151037
        17    -0.2693647    -0.0011008     0.0200298    -0.1579426     0.0158879    -0.1550098     0.0003068     0.0009900
        18     0.0012637    -0.1814283     0.3107672     0.0430322     0.0816830     0.0062876    -0.0905225     0.5988925
        19    -0.1534607     0.1340351    -0.2177033    -0.1272300     0.1533716    -0.1419109     0.1582245    -0.2302863
        20    -0.0470753    -0.0016346     0.0141489    -0.0652313     0.0054940    -0.0998212    -0.0121848     0.0586475
        21    -0.0117688    -0.0220096     0.0220027    -0.1115880     0.2068481    -0.2396809     0.1442186    -0.0739446
        22     0.1496151     0.1350590    -0.2422656     0.0684213     0.1221034     0.1699226     0.1580217    -0.2309380
        23    -0.0469957    -0.0000796     0.0039470    -0.0669419     0.0146016    -0.0987944     0.0123476    -0.0578134
        24     0.0109428    -0.0208586    -0.0074009     0.1167009     0.1548686     0.2746591     0.1435806    -0.0765477
        25    -0.0020198     0.4364170     0.0117703    -0.0010595    -0.0842668    -0.0074365     0.0488079     0.0890919
        26    -0.3567878    -0.0027492     0.0124746    -0.0829625    -0.0028334     0.0241577    -0.0003209    -0.0002835
        27     0.0008713    -0.2471757    -0.3969639    -0.0523168    -0.2862175    -0.0278428    -0.2549269     0.1400788
        28     0.1222954     0.2229570     0.0303200    -0.0330191     0.0682707    -0.0084951    -0.2076426    -0.0309380
        29    -0.1567868    -0.0006330     0.0050766    -0.0331893     0.0015639     0.0245222    -0.0186907    -0.0073321
        30     0.1473816    -0.0231019    -0.1039702    -0.0167581    -0.0402671    -0.0380321    -0.1573055     0.0246595
        31    -0.0014130     0.1026244    -0.0020180    -0.0005187    -0.0388797    -0.0036355     0.0471452     0.0343611
        32    -0.2309614     0.0011606    -0.0021662     0.0249969    -0.0013772     0.0094275     0.0002872     0.0001897
        33    -0.0000621    -0.2645341    -0.1572223    -0.0200154    -0.2348575    -0.0230855     0.2728611     0.1275857
        34    -0.1244048     0.2261718     0.0226518     0.0401764     0.0646282     0.0204997    -0.2081723    -0.0312195
        35    -0.1561457    -0.0036859     0.0042276    -0.0336394    -0.0060361     0.0237653     0.0187708     0.0076264
        36    -0.1468290    -0.0243724    -0.1040135    -0.0091856    -0.0451506     0.0285707    -0.1610085     0.0240816
                  17            18            19            20            21            22            23            24
         1     0.0007027    -0.0042578    -0.0004616     0.0311448     0.0297345     0.0209149     0.0751773    -0.0005414
         2     0.4858706     0.0005816    -0.0664836    -0.0012435    -0.0007521     0.0005475    -0.0011694    -0.0919956
         3     0.0002219    -0.3404935    -0.0017904     0.0289173    -0.5714900    -0.1309472     0.0756777     0.0010951
         4     0.0014848    -0.0649517    -0.0032326     0.2500022     0.1573207    -0.0309659    -0.0706292     0.0002520
         5    -0.1002380    -0.0001856     0.0044897     0.0002281     0.0000173     0.0000162     0.0000401     0.0186982
         6     0.0002879     0.0829904     0.0005353    -0.0474858     0.0695281     0.0121795    -0.0057745    -0.0000776
         7    -0.0006029    -0.1143756     0.0018898    -0.4681703    -0.0317798     0.0012453    -0.0344597     0.0005567
         8    -0.0979165     0.0017248    -0.2157670    -0.0011407    -0.0001188    -0.0000113     0.0004343     0.0016126
         9     0.0000306    -0.4886369    -0.0026335    -0.1337688     0.1903395     0.0062960    -0.0290577    -0.0003985
        10    -0.0001597    -0.0155045     0.0010673    -0.1587095    -0.0663252    -0.0133397     0.0013411     0.0001695
        11    -0.0091396    -0.0012317    -0.0089832     0.0005377    -0.0016725     0.0012692    -0.0015419     0.0154977
        12     0.0003896    -0.3357702    -0.0064664     0.2266320     0.6006600     0.1250560    -0.0922776     0.0005105
        13    -0.0021291    -0.0886433     0.0013733    -0.0801106    -0.1149489     0.1505265    -0.0015329    -0.0007010
        14    -0.4376356    -0.0003771     0.0669330     0.0008038     0.0004701     0.0002437    -0.0014448    -0.1694206
        15    -0.0003487     0.2522097     0.0026043     0.0357190     0.0946465     0.4319153    -0.0516691     0.0013516
        16    -0.0006999    -0.0385739     0.0000570    -0.0337492    -0.0082914    -0.0300230    -0.0020493     0.0000912
        17     0.2842756     0.0004352    -0.0398122    -0.0005767     0.0006019    -0.0021766     0.0072102     0.6956084
        18    -0.0013059    -0.0973752    -0.0012473    -0.0796872     0.0809988    -0.4160548    -0.0083487     0.0013293
        19     0.1504079     0.1585747    -0.0149918     0.0429296     0.2226463    -0.1731689    -0.0287666    -0.4722119
        20     0.1246038    -0.0276275    -0.0168795    -0.0187901    -0.0260084    -0.2716256     0.0496564     0.0465284
        21     0.4379142     0.1243814    -0.0590635     0.0114282     0.1166029    -0.4233171     0.0501738    -0.1149083
        22    -0.1482028     0.1590132     0.0144288     0.0431095     0.2245623    -0.1766297    -0.0184252     0.4747650
        23     0.1250617     0.0277339    -0.0162057     0.0183850     0.0255802     0.2715455    -0.0488534     0.0529796
        24    -0.4367963     0.1242252     0.0587149     0.0127341     0.1190040    -0.4249847     0.0538987     0.1068971
        25    -0.0002415     0.1304972    -0.0002151     0.4078347    -0.2074985    -0.0536159    -0.1612573     0.0018033
        26     0.0440297    -0.0031223     0.4266518     0.0026444     0.0010623     0.0001052     0.0002900     0.0013522
        27    -0.0005591     0.4907533     0.0041504    -0.0032673    -0.0886703    -0.0216881    -0.3265871     0.0033316
        28     0.0168549     0.1337568     0.1455346    -0.2715825     0.0972491     0.0553359     0.3621832     0.0040564
        29    -0.0238564     0.0230149    -0.1702174    -0.0723860     0.0082045     0.0030991    -0.0811810     0.0001036
        30     0.0674445     0.1480742     0.5431571    -0.0830640     0.0554771     0.0286329     0.2682345     0.0036848
        31    -0.0002803     0.0228142    -0.0032294     0.1606604    -0.0619823    -0.0096541     0.0373061    -0.0002199
        32    -0.0311115     0.0023646    -0.2617815    -0.0024644     0.0006159    -0.0017846     0.0027441     0.0079938
        33    -0.0000836    -0.0199055    -0.0066560     0.4833208    -0.0594175     0.0425288     0.6392326    -0.0064153
        34    -0.0158311     0.1352817    -0.1394368    -0.2722850     0.0942703     0.0594749     0.3607060    -0.0116660
        35    -0.0239595    -0.0203078    -0.1740338     0.0710275    -0.0096416    -0.0034440     0.0782097    -0.0014755
        36    -0.0664561     0.1579271    -0.5378911    -0.0953595     0.0522806     0.0320665     0.2649185    -0.0092499
                  25            26            27            28            29            30            31            32
         1     0.0580505     0.0202479    -0.0013736     0.0289425     0.8058400    -0.0042955     0.0019556     0.0000086
         2     0.0004827    -0.0000957     0.0023684     0.0001714    -0.0001127    -0.0000110    -0.0000062    -0.0010579
         3     0.0240960    -0.2419871     0.0057896    -0.4071218     0.0092768     0.0041536     0.0089821     0.0000179
         4    -0.0849368     0.0048310     0.0010025     0.0231988    -0.5436001     0.0013049     0.0011434     0.0000569
         5    -0.0001429     0.0000189    -0.0073378    -0.0000305     0.0000492    -0.0000138    -0.0000092     0.0001793
         6    -0.0061744     0.0318232    -0.0006233     0.0444861    -0.0182505     0.0005357    -0.0005936     0.0000155
         7    -0.0152338    -0.0005013     0.0007106    -0.1381425    -0.1012160    -0.0004693     0.0002947    -0.0000591
         8    -0.0002464    -0.0007589    -0.0481878    -0.0000107     0.0000890     0.0000692     0.0000650     0.0026629
         9     0.1438445     0.2132738    -0.0069510     0.5320266     0.0205754    -0.0035396    -0.0000921    -0.0000116
        10     0.0261340     0.0229366    -0.0005616     0.0206345    -0.0351833    -0.0033231    -0.0015921     0.0003127
        11    -0.0006394     0.0001708    -0.0092280     0.0004040    -0.0001101    -0.0001023    -0.0001417     0.0003641
        12    -0.2541268    -0.1848293     0.0068986    -0.5081433     0.1152338    -0.0035880    -0.0012135    -0.0000548
        13    -0.1844402     0.0809008     0.0008346     0.0330196    -0.0646167     0.0055932    -0.0939169    -0.0004594
        14     0.0010065    -0.0003699     0.0071448    -0.0003335    -0.0000018    -0.0002299    -0.0001599    -0.0041191
        15    -0.0307277     0.0587753     0.0004468     0.0723528    -0.0237883     0.0065336    -0.1410735     0.0006751
        16     0.0249743    -0.0090589    -0.0001781     0.0002345    -0.0239152    -0.0341536     0.6126086     0.0005804
        17    -0.0036275     0.0016423    -0.0105161     0.0010641     0.0000733    -0.0000464    -0.0000824    -0.0002689
        18     0.4475663    -0.1961236    -0.0026202    -0.0663145    -0.0829863     0.0049284    -0.0906483    -0.0001938
        19     0.3584286    -0.1318532     0.0033778    -0.0207289     0.0048387     0.0078009    -0.1504840     0.0027652
        20    -0.2952053     0.1092668    -0.0015076     0.0280586     0.0274315     0.0227498    -0.4394046     0.0082553
        21    -0.2692199     0.1124003    -0.0033488     0.0514143     0.0399180    -0.0147040     0.2760575    -0.0054351
        22     0.3536187    -0.1297065    -0.0081580    -0.0194949     0.0049322     0.0074451    -0.1507752    -0.0020040
        23     0.2945774    -0.1090205    -0.0011146    -0.0278989    -0.0274277    -0.0218785     0.4400543     0.0049886
        24    -0.2697376     0.1127444     0.0003448     0.0513914     0.0399091    -0.0140758     0.2767374     0.0031836
        25     0.0674386     0.1149825    -0.0022408     0.0372223     0.0326448    -0.0222145    -0.0002363    -0.0008152
        26    -0.0017494    -0.0030447    -0.1769259    -0.0014523    -0.0002430    -0.0018228    -0.0006426    -0.3108391
        27    -0.1108081    -0.1934478     0.0041312    -0.0522126     0.0219646    -0.1630525    -0.0092179     0.0015261
        28    -0.0901851    -0.2603157     0.4612171     0.0335209    -0.0421077    -0.1672031    -0.0095662    -0.1914003
        29    -0.1241970    -0.3392202     0.0490293     0.1601725     0.0184879     0.5224877     0.0290113     0.5443071
        30     0.1199550     0.3669098     0.1231845    -0.2757802    -0.0480758     0.3074192     0.0166902     0.3399606
        31     0.0212708     0.0096797     0.0038121     0.0405373     0.0060733     0.4297391     0.0214661    -0.0049105
        32     0.0048261     0.0062649     0.7127518     0.0056082     0.0003664    -0.0028730    -0.0002883    -0.0207496
        33     0.0027894    -0.1954501    -0.0022724     0.1994568    -0.0456703    -0.0501494    -0.0024632     0.0004474
        34    -0.0955532    -0.2651488    -0.4565565     0.0254486    -0.0429504    -0.1715496    -0.0090438     0.1990205
        35     0.1266519     0.3457675     0.0473644    -0.1616740    -0.0181146    -0.5134161    -0.0265628     0.5433539
        36     0.1165559     0.3627555    -0.1295805    -0.2766778    -0.0480452     0.3071970     0.0153497    -0.3455867
                  33            34            35            36
         1    -0.0066064     0.0007990    -0.0020023    -0.0015828
         2    -0.0004190    -0.0035795     0.0000115     0.0000255
         3     0.0072831    -0.0008546    -0.0000870    -0.0070930
         4     0.0025639    -0.0002708     0.0002767     0.0044477
         5     0.0000819     0.0007364    -0.0000304    -0.0000147
         6    -0.0011780     0.0001808     0.0017195    -0.0003085
         7     0.0028082    -0.0003808     0.0025391    -0.2642286
         8     0.0000031    -0.0001772     0.0000260     0.0004436
         9    -0.0010918     0.0001290    -0.0007178    -0.0233112
        10    -0.0033009     0.0006190    -0.0104615     0.9594134
        11    -0.0001459    -0.0007398    -0.0000208    -0.0017358
        12    -0.0039068     0.0004566     0.0047124     0.0943398
        13    -0.2661426     0.0319036    -0.0089386    -0.0008515
        14    -0.0361605    -0.3015785     0.0020373     0.0001134
        15     0.1498358    -0.0178157     0.0044534     0.0007131
        16     0.7243212    -0.0870996     0.0242108     0.0043209
        17    -0.0018324    -0.0150082     0.0000734    -0.0000391
        18    -0.0971094     0.0115644    -0.0040107    -0.0021881
        19     0.1212096     0.1715446     0.0016757     0.0002696
        20     0.4137405     0.4920711     0.0070293     0.0006478
        21    -0.2586472    -0.3332737    -0.0042288    -0.0006361
        22     0.0771825    -0.1952834     0.0040734     0.0003286
        23    -0.2857633     0.5752072    -0.0141333    -0.0009962
        24    -0.1726861     0.3845372    -0.0089689    -0.0008026
        25     0.0092277    -0.0029317    -0.2858951     0.0003303
        26     0.0011601     0.0036727     0.0010610     0.0001534
        27    -0.0041732     0.0013649     0.1049813     0.0057179
        28    -0.0016909     0.0031248     0.0676771    -0.0004490
        29     0.0065449    -0.0096592    -0.2422948    -0.0001140
        30     0.0035558    -0.0058772    -0.1374016    -0.0009737
        31    -0.0254057     0.0084115     0.8549933     0.0111791
        32     0.0001718     0.0000616    -0.0053264    -0.0001450
        33     0.0033354    -0.0010833    -0.0906869     0.0015648
        34    -0.0033204    -0.0015879     0.0719447    -0.0005330
        35    -0.0107851    -0.0034755     0.2439611    -0.0002215
        36     0.0062512     0.0022130    -0.1410597    -0.0008909

   Low Vibration      Wavenumber
        Nr             [1/cm] 
        1                0.00
        2                0.00
        3                0.00
        4                0.00
        5                0.00
        6                0.00
        7               38.57

     Vibration        Wavenumber
        Nr             [1/cm] 
        1               76.53
        2              164.00
        3              294.26
        4              436.50
        5              444.42
        6              630.23
        7              633.86
        8              879.01
        9             1007.18
       10             1050.88
       11             1129.32
       12             1164.20
       13             1177.31
       14             1285.23
       15             1401.53
       16             1444.99
       17             1481.61
       18             1497.84
       19             1513.61
       20             1516.76
       21             1578.81
       22             1755.92
       23             3080.53
       24             3089.14
       25             3159.80
       26             3188.57
       27             3189.16
       28             3200.28
       29             3684.90

 FREQUENCIES * CALCULATION OF NORMAL MODES FOR MP2-F12


 Atomic Coordinates

  Nr  Atom  Charge       X              Y              Z

   1   C     6.00    0.180149854   -0.000003913   -0.892991274
   2   O     8.00    2.490101838   -0.000072648   -0.848241064
   3   N     7.00   -1.253392257   -0.001115317    1.240074451
   4   H     1.00   -3.140816801    0.002104686    1.053524785
   5   C     6.00   -1.276684741    0.000378569   -3.340866765
   6   H     1.00   -3.315732884    0.000347885   -3.080772649
   7   H     1.00   -0.728961317    1.659636295   -4.422629191
   8   H     1.00   -0.729047965   -1.658655256   -4.423020942
   9   C     6.00   -0.148548238    0.000536535    3.735117371
  10   H     1.00   -0.691859464    1.683715617    4.785414555
  11   H     1.00    1.889422739   -0.012236943    3.494269753
  12   H     1.00   -0.712399521   -1.669480695    4.795333845

 Frequencies dumped to record   5400.2

 Gradient norm at reference geometry: 0.61777D-04
 
 Molecule is not in standard orientation!
 Symmetry information for normal modes not available!

 Normal Modes

                              1 A         2 A         3 A         4 A         5 A  
 Wavenumbers [cm-1]           76.53      164.00      294.26      436.50      444.42
 Intensities [km/mol]          0.00        0.00        0.00        0.00        0.00
 Intensities [relative]        0.00        0.00        0.00        0.00        0.00
           GX1              0.00017     0.00056    -0.07251     0.05574     0.00766
           GY1              0.03233     0.03430     0.00034    -0.01084     0.08467
           GZ1             -0.00001    -0.00013     0.01441    -0.01299    -0.00170
           GX2              0.00018     0.00061    -0.07344     0.05801     0.00786
           GY2              0.05330     0.01767     0.00010     0.00019    -0.00444
           GZ2              0.00013    -0.00008     0.10413     0.11992     0.01485
           GX3              0.00007     0.00047    -0.07026    -0.01155    -0.00175
           GY3              0.00897     0.18068     0.00100     0.00795    -0.06534
           GZ3             -0.00018    -0.00029     0.01109    -0.07933    -0.01062
           GX4              0.00005     0.00022    -0.07805    -0.00661     0.00057
           GY4             -0.00053     0.00188     0.00385    -0.11333     0.85643
           GZ4             -0.00034    -0.00097     0.08864    -0.10660    -0.01408
           GX5             -0.00021    -0.00068     0.06054    -0.08372    -0.01091
           GY5             -0.03272    -0.08991    -0.00067     0.00343    -0.02275
           GZ5              0.00018     0.00033    -0.05733     0.07256     0.01039
           GX6             -0.00018    -0.00066     0.04462    -0.05327    -0.00655
           GY6              0.45677    -0.26830    -0.00110     0.01995    -0.15732
           GZ6              0.00057     0.00126    -0.18071     0.30954     0.04286
           GX7              0.37690    -0.15286     0.13351    -0.21684    -0.12673
           GY7             -0.33902    -0.04689    -0.00163     0.01409    -0.06497
           GZ7             -0.27366    -0.01172    -0.02192     0.02192    -0.11115
           GX8             -0.37837     0.14902     0.13453    -0.24131     0.06815
[...]
 Intensities [relative]        0.00        0.00        0.00        0.00        0.00
           GX1             -0.00123    -0.00013     0.00899     0.00858     0.00603
           GY1              0.00017    -0.01918    -0.00036    -0.00022     0.00016
           GZ1             -0.09825    -0.00052     0.00834    -0.16490    -0.03778
           GX2             -0.01624    -0.00081     0.06250     0.03933    -0.00774
           GY2             -0.00005     0.00112     0.00006     0.00000     0.00000
           GZ2              0.02075     0.00013    -0.01187     0.01738     0.00304
           GX3             -0.03056     0.00050    -0.12509    -0.00849     0.00033
           GY3              0.00046    -0.05765    -0.00030    -0.00003     0.00000
           GZ3             -0.13056    -0.00070    -0.03574     0.05086     0.00168
           GX4             -0.01544     0.00106    -0.15808    -0.06606    -0.01329
           GY4             -0.00123    -0.00895     0.00054    -0.00167     0.00126
           GZ4             -0.33445    -0.00644     0.22574     0.59829     0.12456
           GX5             -0.02558     0.00040    -0.02312    -0.03317     0.04343
           GY5             -0.00011     0.01931     0.00023     0.00014     0.00007
           GZ5              0.07277     0.00075     0.01031     0.02731     0.12463
           GX6             -0.03842     0.00006    -0.03362    -0.00826    -0.02990
           GY6              0.00043    -0.03966    -0.00057     0.00060    -0.00217
           GZ6             -0.09699    -0.00124    -0.07937     0.08068    -0.41441
           GX7              0.15795    -0.01493     0.04276     0.22177    -0.17249
           GY7             -0.02752    -0.01681    -0.01872    -0.02591    -0.27055
           GZ7              0.12389    -0.05883     0.01138     0.11614    -0.42165
           GX8              0.15839     0.01437     0.04294     0.22368    -0.17593
           GY8              0.02762    -0.01614     0.01831     0.02548     0.27047
           GZ8              0.12373     0.05848     0.01268     0.11853    -0.42331
           GX9              0.03765    -0.00006     0.11768    -0.05987    -0.01547
           GY9             -0.00090     0.12311     0.00076     0.00031     0.00003
           GZ9              0.14160     0.00120    -0.00094    -0.02559    -0.00626
           GX10             0.13323     0.14496    -0.27051     0.09687     0.05512
           GY10             0.02292    -0.16955    -0.07210     0.00817     0.00309
           GZ10             0.14749     0.54101    -0.08274     0.05526     0.02852
           GX11             0.02272    -0.00322     0.16003    -0.06174    -0.00962
           GY11             0.00236    -0.26075    -0.00245     0.00061    -0.00178
           GZ11            -0.01983    -0.00663     0.48141    -0.05918     0.04236
           GX12             0.13475    -0.13889    -0.27121     0.09390     0.05924
           GY12            -0.02023    -0.17335     0.07075    -0.00960    -0.00343
           GZ12             0.15730    -0.53577    -0.09498     0.05207     0.03194

                             16 A        17 A        18 A        19 A        20 A  
 Wavenumbers [cm-1]         1444.99     1481.61     1497.84     1513.61     1516.76
 Intensities [km/mol]          0.00        0.00        0.00        0.00        0.00
 Intensities [relative]        0.00        0.00        0.00        0.00        0.00
           GX1              0.02169    -0.00016     0.01675     0.00584    -0.00040
           GY1             -0.00034    -0.02654     0.00014    -0.00003     0.00068
           GZ1              0.02184     0.00032     0.00695    -0.06982     0.00167
           GX2             -0.01766     0.00006    -0.02123     0.00121     0.00025
           GY2              0.00001     0.00467    -0.00004     0.00000    -0.00183
           GZ2             -0.00144    -0.00002    -0.00154     0.00796    -0.00016
           GX3             -0.00921     0.00015    -0.00407    -0.00013     0.00019
           GY3              0.00012     0.00043    -0.00007    -0.00020    -0.01288
           GZ3             -0.00776    -0.00011     0.03843     0.05699    -0.00186
           GX4              0.00134     0.00017     0.02603     0.02285    -0.00056
           GY4             -0.00154     0.01544    -0.00064     0.00017    -0.00919
           GZ4             -0.09191     0.00051    -0.25312    -0.18410     0.00687
           GX5             -0.00044    -0.00020    -0.05322     0.02334     0.00024
           GY5             -0.00042    -0.04889     0.00029    -0.00011     0.00206
           GZ5             -0.01491     0.00039    -0.00887     0.01696     0.00013
           GX6             -0.00204     0.00009     0.02488    -0.00902    -0.00018
           GY6              0.00718     0.69286    -0.00361     0.00164    -0.01047
           GZ6             -0.00832     0.00132     0.44580    -0.19535    -0.00261
           GX7             -0.02865    -0.47035     0.35701    -0.13133     0.00336
           GY7              0.04946     0.04634    -0.29404     0.10884    -0.00150
           GZ7              0.04998    -0.11445    -0.26816     0.11196    -0.00334
           GX8             -0.01835     0.47289     0.35222    -0.12919    -0.00813
           GY8             -0.04866     0.05277     0.29341    -0.10859    -0.00111
           GZ8              0.05369     0.10648    -0.26867     0.11230     0.00034
           GX9             -0.04653     0.00052     0.01946     0.03318    -0.00065
           GY9              0.00008     0.00039    -0.00050    -0.00088    -0.05105
           GZ9             -0.09423     0.00096    -0.03197    -0.05582     0.00119
           GX10             0.36075     0.00404    -0.08983    -0.25929     0.45940
           GY10            -0.08086     0.00010    -0.12371    -0.33788     0.04884
           GZ10             0.26718     0.00367     0.11948     0.36546     0.12270
           GX11             0.03716    -0.00022     0.02119     0.00964     0.00380
           GY11             0.00273     0.00796     0.00481     0.00624     0.70994
           GZ11             0.63671    -0.00639     0.00278    -0.19468    -0.00226
           GX12             0.35928    -0.01162    -0.09518    -0.26410    -0.45475
           GY12             0.07790    -0.00147     0.12615     0.34440     0.04718
           GZ12             0.26387    -0.00921     0.11610     0.36132    -0.12907

                             21 A        22 A        23 A        24 A        25 A  
 Wavenumbers [cm-1]         1578.81     1755.92     3080.53     3089.14     3159.80
 Intensities [km/mol]          0.00        0.00        0.00        0.00        0.00
 Intensities [relative]        0.00        0.00        0.00        0.00        0.00
           GX1              0.00835     0.23252    -0.00124     0.00056     0.00000
           GY1              0.00005    -0.00003     0.00000     0.00000    -0.00031
           GZ1             -0.11747     0.00268     0.00120     0.00259     0.00001
           GX2              0.00580    -0.13590     0.00033     0.00029     0.00001
           GY2             -0.00001     0.00001     0.00000     0.00000     0.00004
           GZ2              0.01112    -0.00456     0.00013    -0.00015     0.00000
           GX3             -0.03691    -0.02704    -0.00013     0.00008    -0.00002
           GY3              0.00000     0.00002     0.00002     0.00002     0.00071
           GZ3              0.14216     0.00550    -0.00095    -0.00002     0.00000
           GX4              0.02055    -0.03504    -0.00331    -0.00159     0.00031
           GY4              0.00040    -0.00011    -0.00010    -0.00014     0.00036
           GZ4             -0.50614     0.11478    -0.00357    -0.00121    -0.00005
           GX5              0.00953    -0.01864     0.00161    -0.02710    -0.00013
           GY5             -0.00010     0.00000    -0.00007    -0.00005    -0.00119
           GZ5              0.02088    -0.00686     0.00189    -0.04071     0.00019
           GX6              0.00023    -0.02382    -0.03402     0.61019     0.00058
           GY6              0.00106     0.00007    -0.00005    -0.00008    -0.00027
           GZ6             -0.06605    -0.08266     0.00491    -0.09029    -0.00019
           GX7             -0.02065     0.00482     0.00777    -0.14989     0.00275
           GY7              0.02795     0.02732     0.02266    -0.43767     0.00822
           GZ7              0.05121     0.03976    -0.01465     0.27497    -0.00541
           GX8             -0.01942     0.00491     0.00742    -0.15018    -0.00200
           GY8             -0.02779    -0.02732    -0.02179     0.43832     0.00497
           GZ8              0.05119     0.03975    -0.01402     0.27565     0.00317
           GX9              0.01074     0.00942    -0.00641    -0.00007    -0.00024
           GY9             -0.00042    -0.00007    -0.00053    -0.00019    -0.08969
           GZ9             -0.01507     0.00634    -0.04705    -0.00266     0.00044
           GX10             0.03339    -0.04194    -0.16654    -0.00953    -0.19064
           GY10             0.15954     0.01841     0.52043     0.02890     0.54216
           GZ10            -0.27469    -0.04789     0.30621     0.01662     0.33862
           GX11             0.04038     0.00605     0.42804     0.02138    -0.00489
           GY11             0.00559     0.00036    -0.00286    -0.00029    -0.02067
           GZ11             0.19867    -0.04549    -0.04995    -0.00245     0.00045
           GX12             0.02535    -0.04278    -0.17087    -0.00901     0.19824
           GY12            -0.16104    -0.01804    -0.51139    -0.02646     0.54121
           GZ12            -0.27559    -0.04786     0.30598     0.01529    -0.34422

                             26 A        27 A        28 A        29 A  
 Wavenumbers [cm-1]         3188.57     3189.16     3200.28     3684.90
 Intensities [km/mol]          0.00        0.00        0.00        0.00
 Intensities [relative]        0.00        0.00        0.00        0.00
           GX1             -0.00191     0.00023    -0.00058    -0.00046
           GY1             -0.00012    -0.00103     0.00000     0.00001
           GZ1              0.00210    -0.00025    -0.00003    -0.00205
           GX2              0.00064    -0.00007     0.00007     0.00111
           GY2              0.00002     0.00018    -0.00001     0.00000
           GZ2             -0.00029     0.00005     0.00043    -0.00008
           GX3              0.00075    -0.00010     0.00068    -0.07060
           GY3              0.00000    -0.00005     0.00001     0.00012
           GZ3             -0.00029     0.00003    -0.00019    -0.00623
           GX4             -0.00329     0.00062    -0.01042     0.95563
           GY4             -0.00015    -0.00074    -0.00002    -0.00173
           GZ4             -0.00389     0.00045     0.00469     0.09397
           GX5             -0.07679     0.00921    -0.00258    -0.00025
           GY5             -0.01043    -0.08702     0.00059     0.00003
           GZ5              0.04323    -0.00514     0.00128     0.00021
           GX6              0.72146    -0.08676     0.02412     0.00430
           GY6             -0.00183    -0.01495     0.00007    -0.00004
           GZ6             -0.09673     0.01152    -0.00399    -0.00218
           GX7              0.12073     0.17087     0.00167     0.00027
           GY7              0.41211     0.49013     0.00700     0.00065
           GZ7             -0.25763    -0.33196    -0.00421    -0.00063
           GX8              0.07688    -0.19451     0.00406     0.00033
           GY8             -0.28464     0.57294    -0.01408    -0.00099
           GZ8             -0.17200     0.38302    -0.00893    -0.00080
           GX9              0.00266    -0.00085    -0.08249     0.00010
           GY9              0.00033     0.00106     0.00031     0.00004
           GZ9             -0.00120     0.00039     0.03029     0.00165
           GX10            -0.00168     0.00311     0.06741    -0.00045
           GY10             0.00652    -0.00962    -0.24134    -0.00011
           GZ10             0.00354    -0.00585    -0.13686    -0.00097
           GX11            -0.02531     0.00838     0.85162     0.01113
           GY11             0.00017     0.00006    -0.00531    -0.00014
           GZ11             0.00332    -0.00108    -0.09033     0.00156
           GX12            -0.00331    -0.00158     0.07166    -0.00053
           GY12            -0.01074    -0.00346     0.24300    -0.00022
           GZ12             0.00623     0.00220    -0.14050    -0.00089


 Normal Modes of low/zero frequencies

                                  1           2           3           4           5
 Wavenumbers [cm-1]            0.00        0.00        0.00        0.00        0.00
 Intensities [km/mol]          0.00        0.00        0.00        0.00        0.00
 Intensities [relative]        0.00        0.00        0.00        0.00        0.00
           GX1             -0.00276     0.01662     0.00777     0.01140     0.11985
           GY1              0.01360    -0.02970     0.00828     0.03944    -0.01053
           GZ1             -0.09474    -0.03959     0.01063     0.05248     0.00151
           GX2             -0.00292     0.01802     0.00733     0.01207     0.11907
           GY2              0.11043    -0.06470     0.04345     0.16465    -0.01318
           GZ2             -0.08649    -0.11158     0.03330     0.01824     0.04175
           GX3             -0.01034     0.08309    -0.01315     0.04308     0.08269
           GY3             -0.05531     0.02579     0.07433    -0.05584    -0.01518
           GZ3             -0.09987     0.00511    -0.00339     0.07372    -0.02347
           GX4             -0.00981     0.07732    -0.01136     0.04014     0.08594
           GY4             -0.13382     0.05204     0.03949    -0.15693    -0.01258
           GZ4             -0.10660     0.06389    -0.02205     0.10172    -0.05634
           GX5              0.00597    -0.05967     0.03179    -0.02490     0.16249
           GY5             -0.03759    -0.04543    -0.11231    -0.01986    -0.00182
           GZ5             -0.09995     0.00581    -0.00368     0.07408    -0.02387
           GX6              0.00504    -0.05156     0.02924    -0.02105     0.15796
           GY6             -0.12429    -0.00985    -0.13117    -0.13283    -0.00035
           GZ6             -0.10723     0.06937    -0.02369     0.10430    -0.05939
           GX7             -0.05985    -0.06774     0.01845    -0.13114     0.18314
           GY7             -0.01017    -0.07080    -0.14840     0.01871     0.00074
           GZ7             -0.09122    -0.03718    -0.06579     0.07945    -0.00950
           GX8              0.07951    -0.11903     0.06636     0.04925     0.17954
           GY8             -0.01018    -0.07080    -0.14841     0.01871     0.00074
           GZ8             -0.10476     0.01467     0.06916     0.05247    -0.01916
           GX9             -0.01932     0.16088    -0.03766     0.07997     0.03923
           GY9             -0.01909     0.04770     0.19176    -0.01606    -0.02365
           GZ9             -0.09591    -0.02935     0.00738     0.05736    -0.00422
           GX10            -0.09377     0.21962    -0.07227     0.00403     0.02276
           GY10            -0.04620     0.07250     0.22663    -0.05413    -0.02611
           GZ10            -0.09099    -0.03871    -0.06640     0.07909    -0.00878
           GX11            -0.01792     0.15317    -0.03511     0.07709     0.04341
           GY11             0.06748     0.01244     0.21139     0.09669    -0.02517
           GZ11            -0.08868    -0.09267     0.02790     0.02705     0.03125
           GX12             0.04703     0.16811    -0.02395     0.18647     0.01894
           GY12            -0.04710     0.07297     0.22673    -0.05533    -0.02612
           GZ12            -0.10475     0.01432     0.06977     0.05214    -0.01890

                                  6           7
 Wavenumbers [cm-1]            0.00       38.57
 Intensities [km/mol]          0.00        0.00
 Intensities [relative]        0.00        0.00
           GX1              0.01131     0.00029
           GY1              0.11307    -0.00447
           GZ1             -0.01794    -0.00004
           GX2              0.01143     0.00029
           GY2              0.06584    -0.04072
           GZ2             -0.02381    -0.00059
           GX3              0.01671     0.00027
           GY3              0.11462     0.05178
           GZ3             -0.01431     0.00001
           GX4              0.01630     0.00022
           GY4              0.15515    -0.00366
           GZ4             -0.00947    -0.00041
           GX5              0.00510    -0.00014
           GY5              0.17396     0.00199
           GZ5             -0.01423     0.00023
           GX6              0.00576    -0.00009
           GY6              0.21180     0.06920
           GZ6             -0.00905     0.00061
           GX7              0.03587     0.05091
           GY7              0.17679    -0.03177
           GZ7              0.00569    -0.02546
           GX8             -0.03117    -0.05159
           GY8              0.17680    -0.03179
           GZ8             -0.03694     0.02574
           GX9              0.02309    -0.00063
           GY9              0.06025    -0.00276
           GZ9             -0.01710     0.00044
           GX10             0.05976    -0.44218
           GY10             0.05773    -0.27393
           GZ10             0.00591     0.20200
           GX11             0.02222     0.00245
           GY11             0.02217     0.54172
           GZ11            -0.02244    -0.00156
           GX12            -0.00795     0.43771
           GY12             0.05801    -0.28042
           GZ12            -0.03712    -0.19922


 Zero point energy:  0.10287381 [H]    22578.19 [1/CM]      270.10 [KJ/MOL]

 Recomputing wavefunction at initial geometry


 **********************************************************************************************************************************
 DATASETS  * FILE   NREC   LENGTH (MB)   RECORD NAMES
              1      19       55.30       500      610      700      900      950      970     1000      129      960     1100   
                                          VAR    BASINP    GEOM    SYMINP    ZMAT    AOBASIS   BASIS     P2S    ABASIS      S 
                                         1400     1410     1200     1210     1080     1600     1650     1700     1380   
                                           T        V       H0       H01     AOSYM     SMH    MOLCAS    OPER     JKOP   

              2      11        2.05       700     1000      520     2100     7360     7350     7000     5600     5300     5400   
                                         GEOM     BASIS   MCVARS     RHF    F12ABS    EF12              GINFO    HESS     FREQ   
                                         5450   
                                         NMOD   

 PROGRAMS   *        TOTAL      FREQ      OPTG   MP2-F12        HF       INT
 CPU TIMES  *     36844.00  31135.36   5684.88     19.04      1.36      3.22
 REAL TIME  *     41839.33 SEC
 DISK USED  *         3.07 GB      
 SF USED    *         2.10 GB      
 GA USED    *         2.40 MB       (max)       0.00 MB       (current)
 **********************************************************************************************************************************

   OPTG(MP2-F12)        MP2-F12         HF-SCF  
   -248.15716035   -248.15713178   -247.04201135
 **********************************************************************************************************************************
 Variable memory released
